<?xml version="1.0" encoding="UTF-8"?>

<!-- generated on 2023-04-22 14:16:25 by Eclipse SUMO sumo Version 1.14.1
<configuration xmlns:xsi="http://www.w3.org/2001/XMLSchema-instance" xsi:noNamespaceSchemaLocation="http://sumo.dlr.de/xsd/sumoConfiguration.xsd">

    <input>
        <net-file value="city.net.xml"/>
        <route-files value="city.rou.xml"/>
        <additional-files value="city.det.xml"/>
    </input>

    <output>
        <summary-output value="summary.xml"/>
        <tripinfo-output value="tripinfo.xml"/>
    </output>

    <time>
        <begin value="0"/>
        <end value="3600"/>
    </time>

    <traci_server>
        <remote-port value="8873"/>
    </traci_server>

    <gui_only>
        <gui-settings-file value="city.settings.xml"/>
    </gui_only>

</configuration>
-->

<tripinfos xmlns:xsi="http://www.w3.org/2001/XMLSchema-instance" xsi:noNamespaceSchemaLocation="http://sumo.dlr.de/xsd/tripinfo_file.xsd">
    <tripinfo id="0" depart="0.00" departLane="NorthWesttoU_0" departPos="5.10" departSpeed="0.00" departDelay="0.00" arrival="88.00" arrivalLane="UtoNorthEast_0" arrivalPos="488.57" arrivalSpeed="12.34" duration="88.00" routeLength="998.33" waitingTime="1.00" waitingCount="1" stopTime="0.00" timeLoss="13.57" rerouteNo="0" devices="tripinfo_0" vType="DEFAULT_VEHTYPE" speedFactor="0.98" vaporized=""/>
    <tripinfo id="24" depart="24.00" departLane="SouthEasttoR_0" departPos="5.10" departSpeed="0.00" departDelay="0.00" arrival="91.00" arrivalLane="RtoEast_0" arrivalPos="474.72" arrivalSpeed="14.71" duration="67.00" routeLength="950.90" waitingTime="0.00" waitingCount="0" stopTime="0.00" timeLoss="5.86" rerouteNo="0" devices="tripinfo_24" vType="DEFAULT_VEHTYPE" speedFactor="1.12" vaporized=""/>
    <tripinfo id="14" depart="14.00" departLane="SouthEasttoR_0" departPos="5.10" departSpeed="0.00" departDelay="0.00" arrival="96.00" arrivalLane="RtoEast_0" arrivalPos="474.72" arrivalSpeed="14.29" duration="82.00" routeLength="960.77" waitingTime="6.00" waitingCount="1" stopTime="0.00" timeLoss="17.64" rerouteNo="0" devices="tripinfo_14" vType="DEFAULT_VEHTYPE" speedFactor="1.08" vaporized=""/>
    <tripinfo id="73" depart="74.00" departLane="NorthEasttoU_0" departPos="5.10" departSpeed="0.00" departDelay="1.00" arrival="145.00" arrivalLane="UtoNorthWest_0" arrivalPos="488.57" arrivalSpeed="14.74" duration="71.00" routeLength="977.04" waitingTime="0.00" waitingCount="0" stopTime="0.00" timeLoss="6.14" rerouteNo="0" devices="tripinfo_73" vType="DEFAULT_VEHTYPE" speedFactor="1.10" vaporized=""/>
    <tripinfo id="74" depart="74.00" departLane="EasttoR_0" departPos="5.10" departSpeed="0.00" departDelay="0.00" arrival="145.00" arrivalLane="RtoSouthEast_1" arrivalPos="474.64" arrivalSpeed="15.35" duration="71.00" routeLength="980.51" waitingTime="0.00" waitingCount="0" stopTime="0.00" timeLoss="8.59" rerouteNo="0" devices="tripinfo_74" vType="DEFAULT_VEHTYPE" speedFactor="1.14" vaporized=""/>
    <tripinfo id="25" depart="25.00" departLane="WesttoL_0" departPos="5.10" departSpeed="0.00" departDelay="0.00" arrival="164.00" arrivalLane="UtoNorthWest_0" arrivalPos="488.57" arrivalSpeed="13.39" duration="139.00" routeLength="1706.79" waitingTime="0.00" waitingCount="0" stopTime="0.00" timeLoss="15.09" rerouteNo="0" devices="tripinfo_25" vType="DEFAULT_VEHTYPE" speedFactor="0.99" vaporized=""/>
    <tripinfo id="29" depart="29.00" departLane="SouthEasttoR_0" departPos="5.10" departSpeed="0.00" departDelay="0.00" arrival="172.00" arrivalLane="LtoWest_0" arrivalPos="474.72" arrivalSpeed="14.19" duration="143.00" routeLength="1996.09" waitingTime="0.00" waitingCount="0" stopTime="0.00" timeLoss="11.94" rerouteNo="0" devices="tripinfo_29" vType="DEFAULT_VEHTYPE" speedFactor="1.10" vaporized=""/>
    <tripinfo id="20" depart="20.00" departLane="SouthEasttoR_0" departPos="5.10" departSpeed="0.00" departDelay="0.00" arrival="174.00" arrivalLane="UtoNorthWest_0" arrivalPos="488.57" arrivalSpeed="14.29" duration="154.00" routeLength="1701.85" waitingTime="21.00" waitingCount="1" stopTime="0.00" timeLoss="35.24" rerouteNo="0" devices="tripinfo_20" vType="DEFAULT_VEHTYPE" speedFactor="1.03" vaporized=""/>
    <tripinfo id="59" depart="61.00" departLane="SouthEasttoR_0" departPos="5.10" departSpeed="0.00" departDelay="2.00" arrival="175.00" arrivalLane="RtoEast_0" arrivalPos="474.72" arrivalSpeed="14.13" duration="114.00" routeLength="950.90" waitingTime="32.00" waitingCount="1" stopTime="0.00" timeLoss="50.74" rerouteNo="0" devices="tripinfo_59" vType="DEFAULT_VEHTYPE" speedFactor="1.09" vaporized=""/>
    <tripinfo id="31" depart="35.00" departLane="SouthEasttoR_0" departPos="5.10" departSpeed="0.00" departDelay="4.00" arrival="176.00" arrivalLane="UtoNorthEast_0" arrivalPos="488.57" arrivalSpeed="13.36" duration="141.00" routeLength="1684.15" waitingTime="8.00" waitingCount="1" stopTime="0.00" timeLoss="22.42" rerouteNo="0" devices="tripinfo_31" vType="DEFAULT_VEHTYPE" speedFactor="1.03" vaporized=""/>
    <tripinfo id="1" depart="1.00" departLane="EasttoR_0" departPos="5.10" departSpeed="0.00" departDelay="0.00" arrival="177.00" arrivalLane="UtoNorthEast_1" arrivalPos="488.57" arrivalSpeed="14.16" duration="176.00" routeLength="1675.13" waitingTime="51.00" waitingCount="1" stopTime="0.00" timeLoss="63.84" rerouteNo="0" devices="tripinfo_1" vType="DEFAULT_VEHTYPE" speedFactor="1.08" vaporized=""/>
    <tripinfo id="35" depart="37.00" departLane="WesttoL_0" departPos="5.10" departSpeed="0.00" departDelay="2.00" arrival="178.00" arrivalLane="LtoSouthWest_0" arrivalPos="474.64" arrivalSpeed="11.94" duration="141.00" routeLength="950.90" waitingTime="50.00" waitingCount="1" stopTime="0.00" timeLoss="64.53" rerouteNo="0" devices="tripinfo_35" vType="DEFAULT_VEHTYPE" speedFactor="0.90" vaporized=""/>
    <tripinfo id="69" depart="69.00" departLane="SouthEasttoR_0" departPos="5.10" departSpeed="0.00" departDelay="0.00" arrival="178.00" arrivalLane="RtoEast_0" arrivalPos="474.72" arrivalSpeed="14.50" duration="109.00" routeLength="950.90" waitingTime="28.00" waitingCount="1" stopTime="0.00" timeLoss="43.37" rerouteNo="0" devices="tripinfo_69" vType="DEFAULT_VEHTYPE" speedFactor="1.06" vaporized=""/>
    <tripinfo id="8" depart="10.00" departLane="SouthEasttoR_0" departPos="5.10" departSpeed="0.00" departDelay="2.00" arrival="179.00" arrivalLane="UtoNorthWest_0" arrivalPos="488.57" arrivalSpeed="11.65" duration="169.00" routeLength="1701.85" waitingTime="20.00" waitingCount="1" stopTime="0.00" timeLoss="35.99" rerouteNo="0" devices="tripinfo_8" vType="DEFAULT_VEHTYPE" speedFactor="0.92" vaporized=""/>
    <tripinfo id="95" depart="96.00" departLane="SouthEasttoR_0" departPos="5.10" departSpeed="0.00" departDelay="1.00" arrival="180.00" arrivalLane="RtoEast_0" arrivalPos="474.72" arrivalSpeed="13.47" duration="84.00" routeLength="950.90" waitingTime="3.00" waitingCount="1" stopTime="0.00" timeLoss="17.40" rerouteNo="0" devices="tripinfo_95" vType="DEFAULT_VEHTYPE" speedFactor="1.03" vaporized=""/>
    <tripinfo id="103" depart="103.00" departLane="WesttoL_0" departPos="5.10" departSpeed="0.00" departDelay="0.00" arrival="181.00" arrivalLane="LtoSouthWest_0" arrivalPos="474.64" arrivalSpeed="13.62" duration="78.00" routeLength="960.77" waitingTime="0.00" waitingCount="0" stopTime="0.00" timeLoss="9.63" rerouteNo="0" devices="tripinfo_103" vType="DEFAULT_VEHTYPE" speedFactor="1.01" vaporized=""/>
    <tripinfo id="2" depart="2.00" departLane="NorthEasttoU_0" departPos="5.10" departSpeed="0.00" departDelay="0.00" arrival="183.00" arrivalLane="RtoEast_1" arrivalPos="474.72" arrivalSpeed="16.10" duration="181.00" routeLength="1704.19" waitingTime="56.00" waitingCount="2" stopTime="0.00" timeLoss="77.99" rerouteNo="0" devices="tripinfo_2" vType="DEFAULT_VEHTYPE" speedFactor="1.20" vaporized=""/>
    <tripinfo id="21" depart="21.00" departLane="NorthWesttoU_0" departPos="5.10" departSpeed="0.00" departDelay="0.00" arrival="184.00" arrivalLane="RtoEast_0" arrivalPos="474.72" arrivalSpeed="15.34" duration="163.00" routeLength="1703.20" waitingTime="35.00" waitingCount="2" stopTime="0.00" timeLoss="54.42" rerouteNo="0" devices="tripinfo_21" vType="DEFAULT_VEHTYPE" speedFactor="1.13" vaporized=""/>
    <tripinfo id="16" depart="19.00" departLane="EasttoR_0" departPos="5.10" departSpeed="0.00" departDelay="3.00" arrival="186.00" arrivalLane="UtoNorthWest_0" arrivalPos="488.57" arrivalSpeed="13.03" duration="167.00" routeLength="1692.83" waitingTime="33.00" waitingCount="1" stopTime="0.00" timeLoss="48.38" rerouteNo="0" devices="tripinfo_16" vType="DEFAULT_VEHTYPE" speedFactor="1.03" vaporized=""/>
    <tripinfo id="104" depart="106.00" departLane="WesttoL_0" departPos="5.10" departSpeed="0.00" departDelay="2.00" arrival="186.00" arrivalLane="LtoSouthWest_0" arrivalPos="474.64" arrivalSpeed="12.29" duration="80.00" routeLength="950.90" waitingTime="0.00" waitingCount="0" stopTime="0.00" timeLoss="8.09" rerouteNo="0" devices="tripinfo_104" vType="DEFAULT_VEHTYPE" speedFactor="0.95" vaporized=""/>
    <tripinfo id="106" depart="112.00" departLane="WesttoL_0" departPos="5.10" departSpeed="0.00" departDelay="6.00" arrival="186.00" arrivalLane="LtoSouthWest_2" arrivalPos="474.64" arrivalSpeed="13.80" duration="74.00" routeLength="950.90" waitingTime="0.00" waitingCount="0" stopTime="0.00" timeLoss="8.54" rerouteNo="0" devices="tripinfo_106" vType="DEFAULT_VEHTYPE" speedFactor="1.06" vaporized=""/>
    <tripinfo id="3" depart="5.00" departLane="NorthEasttoU_0" departPos="5.10" departSpeed="0.00" departDelay="2.00" arrival="189.00" arrivalLane="RtoEast_0" arrivalPos="474.72" arrivalSpeed="14.38" duration="184.00" routeLength="1701.47" waitingTime="45.00" waitingCount="2" stopTime="0.00" timeLoss="66.67" rerouteNo="0" devices="tripinfo_3" vType="DEFAULT_VEHTYPE" speedFactor="1.05" vaporized=""/>
    <tripinfo id="4" depart="4.00" departLane="SouthEasttoR_0" departPos="5.10" departSpeed="0.00" departDelay="0.00" arrival="189.00" arrivalLane="LtoSouthWest_1" arrivalPos="474.64" arrivalSpeed="14.66" duration="185.00" routeLength="1997.28" waitingTime="24.00" waitingCount="3" stopTime="0.00" timeLoss="50.75" rerouteNo="0" devices="tripinfo_4" vType="DEFAULT_VEHTYPE" speedFactor="1.08" vaporized=""/>
    <tripinfo id="100" depart="100.00" departLane="WesttoL_0" departPos="5.10" departSpeed="0.00" departDelay="0.00" arrival="190.00" arrivalLane="LtoSouthWest_0" arrivalPos="474.64" arrivalSpeed="10.85" duration="90.00" routeLength="950.90" waitingTime="0.00" waitingCount="0" stopTime="0.00" timeLoss="7.63" rerouteNo="0" devices="tripinfo_100" vType="DEFAULT_VEHTYPE" speedFactor="0.84" vaporized=""/>
    <tripinfo id="123" depart="123.00" departLane="SouthEasttoR_0" departPos="5.10" departSpeed="0.00" departDelay="0.00" arrival="190.00" arrivalLane="RtoEast_1" arrivalPos="474.72" arrivalSpeed="14.78" duration="67.00" routeLength="950.90" waitingTime="0.00" waitingCount="0" stopTime="0.00" timeLoss="5.81" rerouteNo="0" devices="tripinfo_123" vType="DEFAULT_VEHTYPE" speedFactor="1.13" vaporized=""/>
    <tripinfo id="13" depart="13.00" departLane="EasttoR_0" departPos="5.10" departSpeed="0.00" departDelay="0.00" arrival="192.00" arrivalLane="UtoNorthEast_0" arrivalPos="488.57" arrivalSpeed="12.11" duration="179.00" routeLength="1675.13" waitingTime="35.00" waitingCount="1" stopTime="0.00" timeLoss="49.34" rerouteNo="0" devices="tripinfo_13" vType="DEFAULT_VEHTYPE" speedFactor="0.94" vaporized=""/>
    <tripinfo id="47" depart="47.00" departLane="NorthEasttoU_0" departPos="5.10" departSpeed="0.00" departDelay="0.00" arrival="195.00" arrivalLane="RtoEast_1" arrivalPos="474.72" arrivalSpeed="14.81" duration="148.00" routeLength="1698.87" waitingTime="13.00" waitingCount="3" stopTime="0.00" timeLoss="38.50" rerouteNo="0" devices="tripinfo_47" vType="DEFAULT_VEHTYPE" speedFactor="1.12" vaporized=""/>
    <tripinfo id="38" depart="38.00" departLane="NorthEasttoU_0" departPos="5.10" departSpeed="0.00" departDelay="0.00" arrival="197.00" arrivalLane="RtoEast_0" arrivalPos="474.72" arrivalSpeed="13.71" duration="159.00" routeLength="1701.47" waitingTime="16.00" waitingCount="3" stopTime="0.00" timeLoss="43.39" rerouteNo="0" devices="tripinfo_38" vType="DEFAULT_VEHTYPE" speedFactor="1.06" vaporized=""/>
    <tripinfo id="114" depart="114.00" departLane="NorthWesttoU_0" departPos="5.10" departSpeed="0.00" departDelay="0.00" arrival="198.00" arrivalLane="UtoNorthEast_0" arrivalPos="488.57" arrivalSpeed="12.58" duration="84.00" routeLength="998.33" waitingTime="0.00" waitingCount="0" stopTime="0.00" timeLoss="7.46" rerouteNo="0" devices="tripinfo_114" vType="DEFAULT_VEHTYPE" speedFactor="0.94" vaporized=""/>
    <tripinfo id="68" depart="71.00" departLane="NorthEasttoU_0" departPos="5.10" departSpeed="0.00" departDelay="3.00" arrival="202.00" arrivalLane="RtoEast_0" arrivalPos="474.72" arrivalSpeed="13.51" duration="131.00" routeLength="1706.79" waitingTime="0.00" waitingCount="0" stopTime="0.00" timeLoss="13.64" rerouteNo="0" devices="tripinfo_68" vType="DEFAULT_VEHTYPE" speedFactor="1.05" vaporized=""/>
    <tripinfo id="54" depart="54.00" departLane="NorthEasttoU_0" departPos="5.10" departSpeed="0.00" departDelay="0.00" arrival="203.00" arrivalLane="RtoEast_0" arrivalPos="474.72" arrivalSpeed="12.25" duration="149.00" routeLength="1701.47" waitingTime="0.00" waitingCount="0" stopTime="0.00" timeLoss="16.93" rerouteNo="0" devices="tripinfo_54" vType="DEFAULT_VEHTYPE" speedFactor="0.93" vaporized=""/>
    <tripinfo id="51" depart="51.00" departLane="NorthEasttoU_0" departPos="5.10" departSpeed="0.00" departDelay="0.00" arrival="205.00" arrivalLane="RtoSouthEast_0" arrivalPos="474.64" arrivalSpeed="11.72" duration="154.00" routeLength="1705.44" waitingTime="2.00" waitingCount="1" stopTime="0.00" timeLoss="18.10" rerouteNo="0" devices="tripinfo_51" vType="DEFAULT_VEHTYPE" speedFactor="0.91" vaporized=""/>
    <tripinfo id="66" depart="66.00" departLane="EasttoR_0" departPos="5.10" departSpeed="0.00" departDelay="0.00" arrival="205.00" arrivalLane="UtoNorthWest_0" arrivalPos="488.57" arrivalSpeed="12.54" duration="139.00" routeLength="1692.83" waitingTime="0.00" waitingCount="0" stopTime="0.00" timeLoss="9.30" rerouteNo="0" devices="tripinfo_66" vType="DEFAULT_VEHTYPE" speedFactor="0.94" vaporized=""/>
    <tripinfo id="15" depart="16.00" departLane="EasttoR_0" departPos="5.10" departSpeed="0.00" departDelay="1.00" arrival="206.00" arrivalLane="LtoSouthWest_0" arrivalPos="474.64" arrivalSpeed="13.29" duration="190.00" routeLength="1996.09" waitingTime="32.00" waitingCount="1" stopTime="0.00" timeLoss="47.64" rerouteNo="0" devices="tripinfo_15" vType="DEFAULT_VEHTYPE" speedFactor="1.01" vaporized=""/>
    <tripinfo id="5" depart="7.00" departLane="SouthEasttoR_0" departPos="5.10" departSpeed="0.00" departDelay="2.00" arrival="211.00" arrivalLane="LtoSouthWest_0" arrivalPos="474.64" arrivalSpeed="11.90" duration="204.00" routeLength="1992.08" waitingTime="29.00" waitingCount="2" stopTime="0.00" timeLoss="50.21" rerouteNo="0" devices="tripinfo_5" vType="DEFAULT_VEHTYPE" speedFactor="0.94" vaporized=""/>
    <tripinfo id="46" depart="46.00" departLane="EasttoR_0" departPos="5.10" departSpeed="0.00" departDelay="0.00" arrival="213.00" arrivalLane="LtoSouthWest_1" arrivalPos="474.64" arrivalSpeed="13.42" duration="167.00" routeLength="1993.49" waitingTime="5.00" waitingCount="1" stopTime="0.00" timeLoss="23.00" rerouteNo="0" devices="tripinfo_46" vType="DEFAULT_VEHTYPE" speedFactor="1.00" vaporized=""/>
    <tripinfo id="30" depart="32.00" departLane="SouthEasttoR_0" departPos="5.10" departSpeed="0.00" departDelay="2.00" arrival="218.00" arrivalLane="LtoSouthWest_0" arrivalPos="474.64" arrivalSpeed="10.69" duration="186.00" routeLength="1994.68" waitingTime="0.00" waitingCount="0" stopTime="0.00" timeLoss="13.27" rerouteNo="0" devices="tripinfo_30" vType="DEFAULT_VEHTYPE" speedFactor="0.83" vaporized=""/>
    <tripinfo id="56" depart="57.00" departLane="NorthEasttoU_0" departPos="5.10" departSpeed="0.00" departDelay="1.00" arrival="218.00" arrivalLane="LtoSouthWest_1" arrivalPos="474.64" arrivalSpeed="15.41" duration="161.00" routeLength="1701.85" waitingTime="29.00" waitingCount="1" stopTime="0.00" timeLoss="50.85" rerouteNo="0" devices="tripinfo_56" vType="DEFAULT_VEHTYPE" speedFactor="1.12" vaporized=""/>
    <tripinfo id="7" depart="9.00" departLane="SouthWesttoL_0" departPos="5.10" departSpeed="0.00" departDelay="2.00" arrival="219.00" arrivalLane="RtoEast_1" arrivalPos="474.72" arrivalSpeed="14.71" duration="210.00" routeLength="1985.72" waitingTime="54.00" waitingCount="2" stopTime="0.00" timeLoss="78.82" rerouteNo="0" devices="tripinfo_7" vType="DEFAULT_VEHTYPE" speedFactor="1.09" vaporized=""/>
    <tripinfo id="39" depart="39.00" departLane="SouthWesttoL_0" departPos="5.10" departSpeed="0.00" departDelay="0.00" arrival="219.00" arrivalLane="RtoEast_0" arrivalPos="474.72" arrivalSpeed="15.58" duration="180.00" routeLength="1988.31" waitingTime="33.00" waitingCount="2" stopTime="0.00" timeLoss="56.81" rerouteNo="0" devices="tripinfo_39" vType="DEFAULT_VEHTYPE" speedFactor="1.17" vaporized=""/>
    <tripinfo id="23" depart="23.00" departLane="NorthEasttoU_0" departPos="5.10" departSpeed="0.00" departDelay="0.00" arrival="220.00" arrivalLane="LtoSouthWest_0" arrivalPos="474.64" arrivalSpeed="14.83" duration="197.00" routeLength="1701.85" waitingTime="69.00" waitingCount="2" stopTime="0.00" timeLoss="90.23" rerouteNo="0" devices="tripinfo_23" vType="DEFAULT_VEHTYPE" speedFactor="1.15" vaporized=""/>
    <tripinfo id="87" depart="88.00" departLane="NorthEasttoU_0" departPos="5.10" departSpeed="0.00" departDelay="1.00" arrival="223.00" arrivalLane="LtoSouthWest_0" arrivalPos="474.64" arrivalSpeed="16.22" duration="135.00" routeLength="1701.85" waitingTime="14.00" waitingCount="1" stopTime="0.00" timeLoss="30.30" rerouteNo="0" devices="tripinfo_87" vType="DEFAULT_VEHTYPE" speedFactor="1.18" vaporized=""/>
    <tripinfo id="9" depart="12.00" departLane="SouthWesttoL_0" departPos="5.10" departSpeed="0.00" departDelay="3.00" arrival="224.00" arrivalLane="RtoSouthEast_1" arrivalPos="474.64" arrivalSpeed="14.90" duration="212.00" routeLength="1976.54" waitingTime="53.00" waitingCount="2" stopTime="0.00" timeLoss="84.64" rerouteNo="0" devices="tripinfo_9" vType="DEFAULT_VEHTYPE" speedFactor="1.12" vaporized=""/>
    <tripinfo id="28" depart="28.00" departLane="NorthWesttoU_0" departPos="5.10" departSpeed="0.00" departDelay="0.00" arrival="224.00" arrivalLane="LtoWest_0" arrivalPos="474.72" arrivalSpeed="12.23" duration="196.00" routeLength="1675.13" waitingTime="52.00" waitingCount="1" stopTime="0.00" timeLoss="67.57" rerouteNo="0" devices="tripinfo_28" vType="DEFAULT_VEHTYPE" speedFactor="0.94" vaporized=""/>
    <tripinfo id="33" depart="33.00" departLane="NorthEasttoU_0" departPos="5.10" departSpeed="0.00" departDelay="0.00" arrival="224.00" arrivalLane="LtoWest_1" arrivalPos="474.72" arrivalSpeed="14.09" duration="191.00" routeLength="1692.83" waitingTime="51.00" waitingCount="2" stopTime="0.00" timeLoss="73.14" rerouteNo="0" devices="tripinfo_33" vType="DEFAULT_VEHTYPE" speedFactor="1.04" vaporized=""/>
    <tripinfo id="49" depart="49.00" departLane="SouthWesttoL_0" departPos="5.10" departSpeed="0.00" departDelay="0.00" arrival="224.00" arrivalLane="UtoNorthEast_0" arrivalPos="488.57" arrivalSpeed="13.24" duration="175.00" routeLength="1701.85" waitingTime="28.00" waitingCount="1" stopTime="0.00" timeLoss="50.34" rerouteNo="0" devices="tripinfo_49" vType="DEFAULT_VEHTYPE" speedFactor="0.99" vaporized=""/>
    <tripinfo id="53" depart="53.00" departLane="SouthWesttoL_0" departPos="5.10" departSpeed="0.00" departDelay="0.00" arrival="224.00" arrivalLane="RtoEast_1" arrivalPos="474.72" arrivalSpeed="13.75" duration="171.00" routeLength="1988.31" waitingTime="8.00" waitingCount="1" stopTime="0.00" timeLoss="30.69" rerouteNo="0" devices="tripinfo_53" vType="DEFAULT_VEHTYPE" speedFactor="1.02" vaporized=""/>
    <tripinfo id="61" depart="61.00" departLane="SouthWesttoL_0" departPos="5.10" departSpeed="0.00" departDelay="0.00" arrival="224.00" arrivalLane="RtoEast_2" arrivalPos="474.72" arrivalSpeed="14.09" duration="163.00" routeLength="1988.31" waitingTime="4.00" waitingCount="1" stopTime="0.00" timeLoss="21.76" rerouteNo="0" devices="tripinfo_61" vType="DEFAULT_VEHTYPE" speedFactor="1.02" vaporized=""/>
    <tripinfo id="64" depart="67.00" departLane="SouthWesttoL_0" departPos="5.10" departSpeed="0.00" departDelay="3.00" arrival="224.00" arrivalLane="UtoNorthWest_0" arrivalPos="488.57" arrivalSpeed="13.12" duration="157.00" routeLength="1700.12" waitingTime="14.00" waitingCount="1" stopTime="0.00" timeLoss="32.00" rerouteNo="0" devices="tripinfo_64" vType="DEFAULT_VEHTYPE" speedFactor="0.98" vaporized=""/>
    <tripinfo id="11" depart="12.00" departLane="WesttoL_0" departPos="5.10" departSpeed="0.00" departDelay="1.00" arrival="225.00" arrivalLane="RtoEast_0" arrivalPos="474.72" arrivalSpeed="12.63" duration="213.00" routeLength="1994.90" waitingTime="41.00" waitingCount="1" stopTime="0.00" timeLoss="57.73" rerouteNo="0" devices="tripinfo_11" vType="DEFAULT_VEHTYPE" speedFactor="0.93" vaporized=""/>
    <tripinfo id="6" depart="6.00" departLane="SouthWesttoL_0" departPos="5.10" departSpeed="0.00" departDelay="0.00" arrival="226.00" arrivalLane="RtoSouthEast_1" arrivalPos="474.64" arrivalSpeed="13.84" duration="220.00" routeLength="1976.54" waitingTime="57.00" waitingCount="2" stopTime="0.00" timeLoss="79.69" rerouteNo="0" devices="tripinfo_6" vType="DEFAULT_VEHTYPE" speedFactor="1.02" vaporized=""/>
    <tripinfo id="10" depart="10.00" departLane="WesttoL_0" departPos="5.10" departSpeed="0.00" departDelay="0.00" arrival="226.00" arrivalLane="RtoSouthEast_0" arrivalPos="474.64" arrivalSpeed="12.49" duration="216.00" routeLength="1985.72" waitingTime="41.00" waitingCount="1" stopTime="0.00" timeLoss="56.30" rerouteNo="0" devices="tripinfo_10" vType="DEFAULT_VEHTYPE" speedFactor="0.90" vaporized=""/>
    <tripinfo id="88" depart="88.00" departLane="WesttoL_0" departPos="5.10" departSpeed="0.00" departDelay="0.00" arrival="226.00" arrivalLane="UtoNorthWest_1" arrivalPos="488.57" arrivalSpeed="14.70" duration="138.00" routeLength="1698.87" waitingTime="11.00" waitingCount="1" stopTime="0.00" timeLoss="29.66" rerouteNo="0" devices="tripinfo_88" vType="DEFAULT_VEHTYPE" speedFactor="1.13" vaporized=""/>
    <tripinfo id="65" depart="65.00" departLane="NorthEasttoU_0" departPos="5.10" departSpeed="0.00" departDelay="0.00" arrival="227.00" arrivalLane="LtoSouthWest_1" arrivalPos="474.64" arrivalSpeed="12.80" duration="162.00" routeLength="1701.85" waitingTime="23.00" waitingCount="1" stopTime="0.00" timeLoss="40.02" rerouteNo="0" devices="tripinfo_65" vType="DEFAULT_VEHTYPE" speedFactor="1.01" vaporized=""/>
    <tripinfo id="55" depart="55.00" departLane="NorthWesttoU_0" departPos="5.10" departSpeed="0.00" departDelay="0.00" arrival="228.00" arrivalLane="LtoSouthWest_0" arrivalPos="474.64" arrivalSpeed="13.41" duration="173.00" routeLength="1684.15" waitingTime="40.00" waitingCount="1" stopTime="0.00" timeLoss="57.80" rerouteNo="0" devices="tripinfo_55" vType="DEFAULT_VEHTYPE" speedFactor="1.06" vaporized=""/>
    <tripinfo id="17" depart="17.00" departLane="NorthEasttoU_0" departPos="5.10" departSpeed="0.00" departDelay="0.00" arrival="230.00" arrivalLane="LtoSouthWest_0" arrivalPos="474.64" arrivalSpeed="11.75" duration="213.00" routeLength="1701.85" waitingTime="50.00" waitingCount="2" stopTime="0.00" timeLoss="74.36" rerouteNo="0" devices="tripinfo_17" vType="DEFAULT_VEHTYPE" speedFactor="0.89" vaporized=""/>
    <tripinfo id="57" depart="58.00" departLane="NorthWesttoU_0" departPos="5.10" departSpeed="0.00" departDelay="1.00" arrival="230.00" arrivalLane="LtoWest_0" arrivalPos="474.72" arrivalSpeed="13.06" duration="172.00" routeLength="1675.13" waitingTime="37.00" waitingCount="1" stopTime="0.00" timeLoss="55.08" rerouteNo="0" devices="tripinfo_57" vType="DEFAULT_VEHTYPE" speedFactor="1.03" vaporized=""/>
    <tripinfo id="26" depart="26.00" departLane="SouthWesttoL_0" departPos="5.10" departSpeed="0.00" departDelay="0.00" arrival="231.00" arrivalLane="RtoSouthEast_0" arrivalPos="474.64" arrivalSpeed="12.69" duration="205.00" routeLength="1976.54" waitingTime="32.00" waitingCount="2" stopTime="0.00" timeLoss="57.73" rerouteNo="0" devices="tripinfo_26" vType="DEFAULT_VEHTYPE" speedFactor="0.97" vaporized=""/>
    <tripinfo id="81" depart="82.00" departLane="NorthWesttoU_0" departPos="5.10" departSpeed="0.00" departDelay="1.00" arrival="234.00" arrivalLane="LtoWest_0" arrivalPos="474.72" arrivalSpeed="13.62" duration="152.00" routeLength="1680.45" waitingTime="16.00" waitingCount="2" stopTime="0.00" timeLoss="38.12" rerouteNo="0" devices="tripinfo_81" vType="DEFAULT_VEHTYPE" speedFactor="1.06" vaporized=""/>
    <tripinfo id="93" depart="94.00" departLane="WesttoL_0" departPos="5.10" departSpeed="0.00" departDelay="1.00" arrival="236.00" arrivalLane="UtoNorthWest_0" arrivalPos="488.57" arrivalSpeed="13.15" duration="142.00" routeLength="1701.47" waitingTime="2.00" waitingCount="1" stopTime="0.00" timeLoss="21.83" rerouteNo="0" devices="tripinfo_93" vType="DEFAULT_VEHTYPE" speedFactor="1.02" vaporized=""/>
    <tripinfo id="19" depart="19.00" departLane="SouthWesttoL_0" departPos="5.10" departSpeed="0.00" departDelay="0.00" arrival="237.00" arrivalLane="RtoSouthEast_0" arrivalPos="474.64" arrivalSpeed="12.09" duration="218.00" routeLength="1976.54" waitingTime="31.00" waitingCount="1" stopTime="0.00" timeLoss="54.52" rerouteNo="0" devices="tripinfo_19" vType="DEFAULT_VEHTYPE" speedFactor="0.87" vaporized=""/>
    <tripinfo id="80" depart="80.00" departLane="WesttoL_0" departPos="5.10" departSpeed="0.00" departDelay="0.00" arrival="237.00" arrivalLane="UtoNorthEast_0" arrivalPos="488.57" arrivalSpeed="13.39" duration="157.00" routeLength="1703.20" waitingTime="14.00" waitingCount="1" stopTime="0.00" timeLoss="31.40" rerouteNo="0" devices="tripinfo_80" vType="DEFAULT_VEHTYPE" speedFactor="0.98" vaporized=""/>
    <tripinfo id="101" depart="101.00" departLane="NorthWesttoU_0" departPos="5.10" departSpeed="0.00" departDelay="0.00" arrival="237.00" arrivalLane="LtoSouthWest_0" arrivalPos="474.64" arrivalSpeed="13.34" duration="136.00" routeLength="1689.47" waitingTime="2.00" waitingCount="1" stopTime="0.00" timeLoss="18.59" rerouteNo="0" devices="tripinfo_101" vType="DEFAULT_VEHTYPE" speedFactor="1.04" vaporized=""/>
    <tripinfo id="72" depart="73.00" departLane="NorthWesttoU_0" departPos="5.10" departSpeed="0.00" departDelay="1.00" arrival="238.00" arrivalLane="LtoWest_0" arrivalPos="474.72" arrivalSpeed="15.48" duration="165.00" routeLength="1675.13" waitingTime="22.00" waitingCount="2" stopTime="0.00" timeLoss="58.44" rerouteNo="0" devices="tripinfo_72" vType="DEFAULT_VEHTYPE" speedFactor="1.14" vaporized=""/>
    <tripinfo id="107" depart="115.00" departLane="WesttoL_0" departPos="5.10" departSpeed="0.00" departDelay="8.00" arrival="238.00" arrivalLane="UtoNorthEast_1" arrivalPos="488.57" arrivalSpeed="14.39" duration="123.00" routeLength="1703.20" waitingTime="0.00" waitingCount="0" stopTime="0.00" timeLoss="12.85" rerouteNo="0" devices="tripinfo_107" vType="DEFAULT_VEHTYPE" speedFactor="1.11" vaporized=""/>
    <tripinfo id="126" depart="126.00" departLane="SouthWesttoL_0" departPos="5.10" departSpeed="0.00" departDelay="0.00" arrival="239.00" arrivalLane="LtoWest_1" arrivalPos="474.72" arrivalSpeed="15.13" duration="113.00" routeLength="980.51" waitingTime="32.00" waitingCount="2" stopTime="0.00" timeLoss="49.97" rerouteNo="0" devices="tripinfo_126" vType="DEFAULT_VEHTYPE" speedFactor="1.13" vaporized=""/>
    <tripinfo id="42" depart="42.00" departLane="NorthEasttoU_0" departPos="5.10" departSpeed="0.00" departDelay="0.00" arrival="241.00" arrivalLane="LtoSouthWest_0" arrivalPos="474.64" arrivalSpeed="14.68" duration="199.00" routeLength="1701.85" waitingTime="59.00" waitingCount="3" stopTime="0.00" timeLoss="87.10" rerouteNo="0" devices="tripinfo_42" vType="DEFAULT_VEHTYPE" speedFactor="1.10" vaporized=""/>
    <tripinfo id="36" depart="36.00" departLane="NorthWesttoU_0" departPos="5.10" departSpeed="0.00" departDelay="0.00" arrival="242.00" arrivalLane="LtoWest_0" arrivalPos="474.72" arrivalSpeed="13.81" duration="206.00" routeLength="1677.72" waitingTime="68.00" waitingCount="2" stopTime="0.00" timeLoss="86.82" rerouteNo="0" devices="tripinfo_36" vType="DEFAULT_VEHTYPE" speedFactor="1.02" vaporized=""/>
    <tripinfo id="71" depart="71.00" departLane="WesttoL_0" departPos="5.10" departSpeed="0.00" departDelay="0.00" arrival="242.00" arrivalLane="UtoNorthEast_0" arrivalPos="488.57" arrivalSpeed="12.53" duration="171.00" routeLength="1700.60" waitingTime="17.00" waitingCount="1" stopTime="0.00" timeLoss="34.96" rerouteNo="0" devices="tripinfo_71" vType="DEFAULT_VEHTYPE" speedFactor="0.91" vaporized=""/>
    <tripinfo id="85" depart="85.00" departLane="NorthEasttoU_0" departPos="5.10" departSpeed="0.00" departDelay="0.00" arrival="244.00" arrivalLane="LtoWest_0" arrivalPos="474.72" arrivalSpeed="14.47" duration="159.00" routeLength="1695.42" waitingTime="25.00" waitingCount="2" stopTime="0.00" timeLoss="46.99" rerouteNo="0" devices="tripinfo_85" vType="DEFAULT_VEHTYPE" speedFactor="1.10" vaporized=""/>
    <tripinfo id="102" depart="102.00" departLane="SouthWesttoL_0" departPos="5.10" departSpeed="0.00" departDelay="0.00" arrival="249.00" arrivalLane="LtoWest_0" arrivalPos="474.72" arrivalSpeed="13.51" duration="147.00" routeLength="990.37" waitingTime="59.00" waitingCount="3" stopTime="0.00" timeLoss="77.44" rerouteNo="0" devices="tripinfo_102" vType="DEFAULT_VEHTYPE" speedFactor="1.04" vaporized=""/>