<?xml version="1.0" encoding="UTF-8"?>

<!-- generated on 2023-01-09 20:27:09 by Eclipse SUMO GUI Version 1.14.1
<configuration xmlns:xsi="http://www.w3.org/2001/XMLSchema-instance" xsi:noNamespaceSchemaLocation="http://sumo.dlr.de/xsd/sumoConfiguration.xsd">

    <input>
        <net-file value="../city.net.xml"/>
        <route-files value="../city.rou.xml"/>
        <additional-files value="../city.det.xml"/>
    </input>

    <output>
        <tripinfo-output value="../tripinfo.xml"/>
    </output>

    <time>
        <begin value="0"/>
        <end value="30000"/>
    </time>

    <traci_server>
        <remote-port value="51771"/>
    </traci_server>

    <gui_only>
        <gui-settings-file value="../city.settings.xml"/>
    </gui_only>

</configuration>
-->

<tripinfos xmlns:xsi="http://www.w3.org/2001/XMLSchema-instance" xsi:noNamespaceSchemaLocation="http://sumo.dlr.de/xsd/tripinfo_file.xsd">
    <tripinfo id="0" depart="0.00" departLane="NorthWesttoU_0" departPos="5.10" departSpeed="0.00" departDelay="0.00" arrival="87.00" arrivalLane="UtoNorthEast_0" arrivalPos="488.57" arrivalSpeed="12.76" duration="87.00" routeLength="998.33" waitingTime="0.00" waitingCount="0" stopTime="0.00" timeLoss="12.56" rerouteNo="0" devices="tripinfo_0" vType="DEFAULT_VEHTYPE" speedFactor="0.98" vaporized=""/>
    <tripinfo id="24" depart="24.00" departLane="SouthEasttoR_0" departPos="5.10" departSpeed="0.00" departDelay="0.00" arrival="124.00" arrivalLane="RtoEast_0" arrivalPos="474.72" arrivalSpeed="15.35" duration="100.00" routeLength="950.90" waitingTime="24.00" waitingCount="1" stopTime="0.00" timeLoss="38.22" rerouteNo="0" devices="tripinfo_24" vType="DEFAULT_VEHTYPE" speedFactor="1.12" vaporized=""/>
    <tripinfo id="35" depart="37.00" departLane="WesttoL_0" departPos="5.10" departSpeed="0.00" departDelay="2.00" arrival="124.00" arrivalLane="LtoSouthWest_0" arrivalPos="474.64" arrivalSpeed="11.42" duration="87.00" routeLength="950.90" waitingTime="0.00" waitingCount="0" stopTime="0.00" timeLoss="10.13" rerouteNo="0" devices="tripinfo_35" vType="DEFAULT_VEHTYPE" speedFactor="0.90" vaporized=""/>
    <tripinfo id="59" depart="61.00" departLane="SouthEasttoR_0" departPos="5.10" departSpeed="0.00" departDelay="2.00" arrival="139.00" arrivalLane="RtoEast_0" arrivalPos="474.72" arrivalSpeed="14.28" duration="78.00" routeLength="950.90" waitingTime="3.00" waitingCount="1" stopTime="0.00" timeLoss="14.88" rerouteNo="0" devices="tripinfo_59" vType="DEFAULT_VEHTYPE" speedFactor="1.09" vaporized=""/>
    <tripinfo id="73" depart="74.00" departLane="NorthEasttoU_0" departPos="5.10" departSpeed="0.00" departDelay="1.00" arrival="146.00" arrivalLane="UtoNorthWest_0" arrivalPos="488.57" arrivalSpeed="13.98" duration="72.00" routeLength="977.04" waitingTime="0.00" waitingCount="0" stopTime="0.00" timeLoss="7.79" rerouteNo="0" devices="tripinfo_73" vType="DEFAULT_VEHTYPE" speedFactor="1.10" vaporized=""/>
    <tripinfo id="14" depart="14.00" departLane="SouthEasttoR_0" departPos="5.10" departSpeed="0.00" departDelay="0.00" arrival="147.00" arrivalLane="RtoEast_0" arrivalPos="474.72" arrivalSpeed="14.54" duration="133.00" routeLength="960.77" waitingTime="52.00" waitingCount="2" stopTime="0.00" timeLoss="68.77" rerouteNo="0" devices="tripinfo_14" vType="DEFAULT_VEHTYPE" speedFactor="1.08" vaporized=""/>
    <tripinfo id="69" depart="69.00" departLane="SouthEasttoR_0" departPos="5.10" departSpeed="0.00" departDelay="0.00" arrival="150.00" arrivalLane="RtoEast_0" arrivalPos="474.72" arrivalSpeed="14.36" duration="81.00" routeLength="960.77" waitingTime="3.00" waitingCount="1" stopTime="0.00" timeLoss="15.02" rerouteNo="0" devices="tripinfo_69" vType="DEFAULT_VEHTYPE" speedFactor="1.06" vaporized=""/>
    <tripinfo id="74" depart="74.00" departLane="EasttoR_0" departPos="5.10" departSpeed="0.00" departDelay="0.00" arrival="162.00" arrivalLane="RtoSouthEast_1" arrivalPos="474.64" arrivalSpeed="15.61" duration="88.00" routeLength="980.51" waitingTime="10.00" waitingCount="1" stopTime="0.00" timeLoss="25.71" rerouteNo="0" devices="tripinfo_74" vType="DEFAULT_VEHTYPE" speedFactor="1.14" vaporized=""/>
    <tripinfo id="103" depart="103.00" departLane="WesttoL_0" departPos="5.10" departSpeed="0.00" departDelay="0.00" arrival="180.00" arrivalLane="LtoSouthWest_0" arrivalPos="474.64" arrivalSpeed="13.59" duration="77.00" routeLength="950.90" waitingTime="0.00" waitingCount="0" stopTime="0.00" timeLoss="8.74" rerouteNo="0" devices="tripinfo_103" vType="DEFAULT_VEHTYPE" speedFactor="1.01" vaporized=""/>
    <tripinfo id="104" depart="106.00" departLane="WesttoL_0" departPos="5.10" departSpeed="0.00" departDelay="2.00" arrival="187.00" arrivalLane="LtoSouthWest_0" arrivalPos="474.64" arrivalSpeed="11.97" duration="81.00" routeLength="960.77" waitingTime="0.00" waitingCount="0" stopTime="0.00" timeLoss="7.83" rerouteNo="0" devices="tripinfo_104" vType="DEFAULT_VEHTYPE" speedFactor="0.95" vaporized=""/>
    <tripinfo id="106" depart="112.00" departLane="WesttoL_0" departPos="5.10" departSpeed="0.00" departDelay="6.00" arrival="187.00" arrivalLane="LtoSouthWest_2" arrivalPos="474.64" arrivalSpeed="14.26" duration="75.00" routeLength="950.90" waitingTime="0.00" waitingCount="0" stopTime="0.00" timeLoss="9.83" rerouteNo="0" devices="tripinfo_106" vType="DEFAULT_VEHTYPE" speedFactor="1.06" vaporized=""/>
    <tripinfo id="100" depart="100.00" departLane="WesttoL_0" departPos="5.10" departSpeed="0.00" departDelay="0.00" arrival="190.00" arrivalLane="LtoSouthWest_0" arrivalPos="474.64" arrivalSpeed="11.22" duration="90.00" routeLength="950.90" waitingTime="0.00" waitingCount="0" stopTime="0.00" timeLoss="7.58" rerouteNo="0" devices="tripinfo_100" vType="DEFAULT_VEHTYPE" speedFactor="0.84" vaporized=""/>
    <tripinfo id="2" depart="2.00" departLane="NorthEasttoU_0" departPos="5.10" departSpeed="0.00" departDelay="0.00" arrival="196.00" arrivalLane="RtoEast_1" arrivalPos="474.72" arrivalSpeed="15.70" duration="194.00" routeLength="1704.19" waitingTime="69.00" waitingCount="2" stopTime="0.00" timeLoss="91.08" rerouteNo="0" devices="tripinfo_2" vType="DEFAULT_VEHTYPE" speedFactor="1.20" vaporized=""/>
    <tripinfo id="42" depart="42.00" departLane="NorthEasttoU_0" departPos="5.10" departSpeed="0.00" departDelay="0.00" arrival="198.00" arrivalLane="LtoSouthWest_1" arrivalPos="474.64" arrivalSpeed="14.11" duration="156.00" routeLength="1701.85" waitingTime="21.00" waitingCount="2" stopTime="0.00" timeLoss="44.45" rerouteNo="0" devices="tripinfo_42" vType="DEFAULT_VEHTYPE" speedFactor="1.10" vaporized=""/>
    <tripinfo id="114" depart="114.00" departLane="NorthWesttoU_0" departPos="5.10" departSpeed="0.00" departDelay="0.00" arrival="198.00" arrivalLane="UtoNorthEast_0" arrivalPos="488.57" arrivalSpeed="11.86" duration="84.00" routeLength="998.33" waitingTime="0.00" waitingCount="0" stopTime="0.00" timeLoss="7.40" rerouteNo="0" devices="tripinfo_114" vType="DEFAULT_VEHTYPE" speedFactor="0.94" vaporized=""/>
    <tripinfo id="23" depart="23.00" departLane="NorthEasttoU_0" departPos="5.10" departSpeed="0.00" departDelay="0.00" arrival="199.00" arrivalLane="LtoSouthWest_0" arrivalPos="474.64" arrivalSpeed="14.89" duration="176.00" routeLength="1701.85" waitingTime="48.00" waitingCount="2" stopTime="0.00" timeLoss="69.65" rerouteNo="0" devices="tripinfo_23" vType="DEFAULT_VEHTYPE" speedFactor="1.15" vaporized=""/>
    <tripinfo id="20" depart="20.00" departLane="SouthEasttoR_0" departPos="5.10" departSpeed="0.00" departDelay="0.00" arrival="200.00" arrivalLane="UtoNorthWest_0" arrivalPos="488.57" arrivalSpeed="13.97" duration="180.00" routeLength="1701.85" waitingTime="41.00" waitingCount="2" stopTime="0.00" timeLoss="61.01" rerouteNo="0" devices="tripinfo_20" vType="DEFAULT_VEHTYPE" speedFactor="1.03" vaporized=""/>
    <tripinfo id="21" depart="21.00" departLane="NorthWesttoU_0" departPos="5.10" departSpeed="0.00" departDelay="0.00" arrival="200.00" arrivalLane="RtoEast_0" arrivalPos="474.72" arrivalSpeed="14.75" duration="179.00" routeLength="1703.20" waitingTime="52.00" waitingCount="1" stopTime="0.00" timeLoss="70.14" rerouteNo="0" devices="tripinfo_21" vType="DEFAULT_VEHTYPE" speedFactor="1.13" vaporized=""/>
    <tripinfo id="38" depart="38.00" departLane="NorthEasttoU_0" departPos="5.10" departSpeed="0.00" departDelay="0.00" arrival="203.00" arrivalLane="RtoEast_1" arrivalPos="474.72" arrivalSpeed="13.48" duration="165.00" routeLength="1698.87" waitingTime="29.00" waitingCount="2" stopTime="0.00" timeLoss="49.48" rerouteNo="0" devices="tripinfo_38" vType="DEFAULT_VEHTYPE" speedFactor="1.06" vaporized=""/>
    <tripinfo id="28" depart="28.00" departLane="NorthWesttoU_0" departPos="5.10" departSpeed="0.00" departDelay="0.00" arrival="204.00" arrivalLane="LtoWest_0" arrivalPos="474.72" arrivalSpeed="12.24" duration="176.00" routeLength="1675.13" waitingTime="31.00" waitingCount="1" stopTime="0.00" timeLoss="47.46" rerouteNo="0" devices="tripinfo_28" vType="DEFAULT_VEHTYPE" speedFactor="0.94" vaporized=""/>
    <tripinfo id="33" depart="33.00" departLane="NorthEasttoU_0" departPos="5.10" departSpeed="0.00" departDelay="0.00" arrival="204.00" arrivalLane="LtoWest_1" arrivalPos="474.72" arrivalSpeed="13.21" duration="171.00" routeLength="1692.83" waitingTime="29.00" waitingCount="2" stopTime="0.00" timeLoss="53.35" rerouteNo="0" devices="tripinfo_33" vType="DEFAULT_VEHTYPE" speedFactor="1.04" vaporized=""/>
    <tripinfo id="3" depart="5.00" departLane="NorthEasttoU_0" departPos="5.10" departSpeed="0.00" departDelay="2.00" arrival="205.00" arrivalLane="RtoEast_0" arrivalPos="474.72" arrivalSpeed="14.50" duration="200.00" routeLength="1701.47" waitingTime="61.00" waitingCount="2" stopTime="0.00" timeLoss="82.67" rerouteNo="0" devices="tripinfo_3" vType="DEFAULT_VEHTYPE" speedFactor="1.05" vaporized=""/>
    <tripinfo id="31" depart="35.00" departLane="SouthEasttoR_0" departPos="5.10" departSpeed="0.00" departDelay="4.00" arrival="206.00" arrivalLane="UtoNorthEast_0" arrivalPos="488.57" arrivalSpeed="13.58" duration="171.00" routeLength="1689.47" waitingTime="22.00" waitingCount="4" stopTime="0.00" timeLoss="52.78" rerouteNo="0" devices="tripinfo_31" vType="DEFAULT_VEHTYPE" speedFactor="1.03" vaporized=""/>
    <tripinfo id="47" depart="47.00" departLane="NorthEasttoU_0" departPos="5.10" departSpeed="0.00" departDelay="0.00" arrival="206.00" arrivalLane="RtoEast_1" arrivalPos="474.72" arrivalSpeed="15.47" duration="159.00" routeLength="1701.47" waitingTime="21.00" waitingCount="1" stopTime="0.00" timeLoss="48.86" rerouteNo="0" devices="tripinfo_47" vType="DEFAULT_VEHTYPE" speedFactor="1.12" vaporized=""/>
    <tripinfo id="56" depart="57.00" departLane="NorthEasttoU_0" departPos="5.10" departSpeed="0.00" departDelay="1.00" arrival="206.00" arrivalLane="LtoSouthWest_0" arrivalPos="474.64" arrivalSpeed="14.24" duration="149.00" routeLength="1701.85" waitingTime="16.00" waitingCount="1" stopTime="0.00" timeLoss="38.87" rerouteNo="0" devices="tripinfo_56" vType="DEFAULT_VEHTYPE" speedFactor="1.12" vaporized=""/>
    <tripinfo id="65" depart="65.00" departLane="NorthEasttoU_0" departPos="5.10" departSpeed="0.00" departDelay="0.00" arrival="206.00" arrivalLane="LtoSouthWest_1" arrivalPos="474.64" arrivalSpeed="13.40" duration="141.00" routeLength="1701.85" waitingTime="2.00" waitingCount="1" stopTime="0.00" timeLoss="19.34" rerouteNo="0" devices="tripinfo_65" vType="DEFAULT_VEHTYPE" speedFactor="1.01" vaporized=""/>
    <tripinfo id="8" depart="10.00" departLane="SouthEasttoR_0" departPos="5.10" departSpeed="0.00" departDelay="2.00" arrival="207.00" arrivalLane="UtoNorthWest_0" arrivalPos="488.57" arrivalSpeed="11.83" duration="197.00" routeLength="1701.85" waitingTime="43.00" waitingCount="2" stopTime="0.00" timeLoss="63.32" rerouteNo="0" devices="tripinfo_8" vType="DEFAULT_VEHTYPE" speedFactor="0.92" vaporized=""/>
    <tripinfo id="36" depart="36.00" departLane="NorthWesttoU_0" departPos="5.10" departSpeed="0.00" departDelay="0.00" arrival="207.00" arrivalLane="LtoWest_1" arrivalPos="474.72" arrivalSpeed="13.90" duration="171.00" routeLength="1677.72" waitingTime="29.00" waitingCount="1" stopTime="0.00" timeLoss="51.92" rerouteNo="0" devices="tripinfo_36" vType="DEFAULT_VEHTYPE" speedFactor="1.02" vaporized=""/>
    <tripinfo id="1" depart="1.00" departLane="EasttoR_0" departPos="5.10" departSpeed="0.00" departDelay="0.00" arrival="208.00" arrivalLane="UtoNorthEast_1" arrivalPos="488.57" arrivalSpeed="14.92" duration="207.00" routeLength="1675.13" waitingTime="81.00" waitingCount="1" stopTime="0.00" timeLoss="94.80" rerouteNo="0" devices="tripinfo_1" vType="DEFAULT_VEHTYPE" speedFactor="1.08" vaporized=""/>
    <tripinfo id="17" depart="17.00" departLane="NorthEasttoU_0" departPos="5.10" departSpeed="0.00" departDelay="0.00" arrival="209.00" arrivalLane="LtoSouthWest_0" arrivalPos="474.64" arrivalSpeed="11.63" duration="192.00" routeLength="1701.85" waitingTime="32.00" waitingCount="2" stopTime="0.00" timeLoss="53.66" rerouteNo="0" devices="tripinfo_17" vType="DEFAULT_VEHTYPE" speedFactor="0.89" vaporized=""/>
    <tripinfo id="58" depart="58.00" departLane="SouthEasttoR_0" departPos="5.10" departSpeed="0.00" departDelay="0.00" arrival="209.00" arrivalLane="UtoNorthWest_0" arrivalPos="488.57" arrivalSpeed="12.15" duration="151.00" routeLength="1701.85" waitingTime="0.00" waitingCount="0" stopTime="0.00" timeLoss="16.95" rerouteNo="0" devices="tripinfo_58" vType="DEFAULT_VEHTYPE" speedFactor="0.92" vaporized=""/>
    <tripinfo id="68" depart="71.00" departLane="NorthEasttoU_0" departPos="5.10" departSpeed="0.00" departDelay="3.00" arrival="210.00" arrivalLane="RtoEast_0" arrivalPos="474.72" arrivalSpeed="14.32" duration="139.00" routeLength="1706.79" waitingTime="0.00" waitingCount="0" stopTime="0.00" timeLoss="21.35" rerouteNo="0" devices="tripinfo_68" vType="DEFAULT_VEHTYPE" speedFactor="1.05" vaporized=""/>
    <tripinfo id="51" depart="51.00" departLane="NorthEasttoU_0" departPos="5.10" departSpeed="0.00" departDelay="0.00" arrival="211.00" arrivalLane="RtoSouthEast_0" arrivalPos="474.64" arrivalSpeed="11.33" duration="160.00" routeLength="1705.44" waitingTime="5.00" waitingCount="2" stopTime="0.00" timeLoss="23.99" rerouteNo="0" devices="tripinfo_51" vType="DEFAULT_VEHTYPE" speedFactor="0.91" vaporized=""/>
    <tripinfo id="54" depart="54.00" departLane="NorthEasttoU_0" departPos="5.10" departSpeed="0.00" departDelay="0.00" arrival="211.00" arrivalLane="RtoEast_1" arrivalPos="474.72" arrivalSpeed="12.08" duration="157.00" routeLength="1698.87" waitingTime="5.00" waitingCount="1" stopTime="0.00" timeLoss="24.68" rerouteNo="0" devices="tripinfo_54" vType="DEFAULT_VEHTYPE" speedFactor="0.93" vaporized=""/>
    <tripinfo id="55" depart="55.00" departLane="NorthWesttoU_0" departPos="5.10" departSpeed="0.00" departDelay="0.00" arrival="214.00" arrivalLane="LtoSouthWest_0" arrivalPos="474.64" arrivalSpeed="14.14" duration="159.00" routeLength="1684.15" waitingTime="26.00" waitingCount="1" stopTime="0.00" timeLoss="43.23" rerouteNo="0" devices="tripinfo_55" vType="DEFAULT_VEHTYPE" speedFactor="1.06" vaporized=""/>
    <tripinfo id="81" depart="82.00" departLane="NorthWesttoU_0" departPos="5.10" departSpeed="0.00" departDelay="1.00" arrival="215.00" arrivalLane="LtoWest_0" arrivalPos="474.72" arrivalSpeed="14.74" duration="133.00" routeLength="1675.13" waitingTime="3.00" waitingCount="1" stopTime="0.00" timeLoss="19.39" rerouteNo="0" devices="tripinfo_81" vType="DEFAULT_VEHTYPE" speedFactor="1.06" vaporized=""/>
    <tripinfo id="16" depart="19.00" departLane="EasttoR_0" departPos="5.10" departSpeed="0.00" departDelay="3.00" arrival="218.00" arrivalLane="UtoNorthWest_0" arrivalPos="488.57" arrivalSpeed="14.13" duration="199.00" routeLength="1692.83" waitingTime="64.00" waitingCount="1" stopTime="0.00" timeLoss="79.90" rerouteNo="0" devices="tripinfo_16" vType="DEFAULT_VEHTYPE" speedFactor="1.03" vaporized=""/>
    <tripinfo id="72" depart="73.00" departLane="NorthWesttoU_0" departPos="5.10" departSpeed="0.00" departDelay="1.00" arrival="218.00" arrivalLane="LtoWest_1" arrivalPos="474.72" arrivalSpeed="15.29" duration="145.00" routeLength="1683.04" waitingTime="11.00" waitingCount="1" stopTime="0.00" timeLoss="38.81" rerouteNo="0" devices="tripinfo_72" vType="DEFAULT_VEHTYPE" speedFactor="1.14" vaporized=""/>
    <tripinfo id="57" depart="58.00" departLane="NorthWesttoU_0" departPos="5.10" departSpeed="0.00" departDelay="1.00" arrival="219.00" arrivalLane="LtoWest_0" arrivalPos="474.72" arrivalSpeed="14.14" duration="161.00" routeLength="1683.04" waitingTime="23.00" waitingCount="2" stopTime="0.00" timeLoss="42.71" rerouteNo="0" devices="tripinfo_57" vType="DEFAULT_VEHTYPE" speedFactor="1.03" vaporized=""/>
    <tripinfo id="50" depart="50.00" departLane="NorthWesttoU_0" departPos="5.10" departSpeed="0.00" departDelay="0.00" arrival="220.00" arrivalLane="RtoEast_0" arrivalPos="474.72" arrivalSpeed="12.51" duration="170.00" routeLength="1703.20" waitingTime="25.00" waitingCount="1" stopTime="0.00" timeLoss="41.61" rerouteNo="0" devices="tripinfo_50" vType="DEFAULT_VEHTYPE" speedFactor="0.96" vaporized=""/>
    <tripinfo id="13" depart="13.00" departLane="EasttoR_0" departPos="5.10" departSpeed="0.00" departDelay="0.00" arrival="223.00" arrivalLane="UtoNorthEast_0" arrivalPos="488.57" arrivalSpeed="12.74" duration="210.00" routeLength="1680.45" waitingTime="66.00" waitingCount="1" stopTime="0.00" timeLoss="80.67" rerouteNo="0" devices="tripinfo_13" vType="DEFAULT_VEHTYPE" speedFactor="0.94" vaporized=""/>
    <tripinfo id="123" depart="123.00" departLane="SouthEasttoR_0" departPos="5.10" departSpeed="0.00" departDelay="0.00" arrival="225.00" arrivalLane="RtoEast_1" arrivalPos="474.72" arrivalSpeed="15.00" duration="102.00" routeLength="950.90" waitingTime="28.00" waitingCount="1" stopTime="0.00" timeLoss="41.12" rerouteNo="0" devices="tripinfo_123" vType="DEFAULT_VEHTYPE" speedFactor="1.13" vaporized=""/>
    <tripinfo id="102" depart="102.00" departLane="SouthWesttoL_0" departPos="5.10" departSpeed="0.00" departDelay="0.00" arrival="226.00" arrivalLane="LtoWest_0" arrivalPos="474.72" arrivalSpeed="14.02" duration="124.00" routeLength="980.51" waitingTime="43.00" waitingCount="1" stopTime="0.00" timeLoss="55.03" rerouteNo="0" devices="tripinfo_102" vType="DEFAULT_VEHTYPE" speedFactor="1.04" vaporized=""/>
    <tripinfo id="126" depart="126.00" departLane="SouthWesttoL_0" departPos="5.10" departSpeed="0.00" departDelay="0.00" arrival="226.00" arrivalLane="LtoWest_2" arrivalPos="474.72" arrivalSpeed="15.40" duration="100.00" routeLength="980.51" waitingTime="22.00" waitingCount="1" stopTime="0.00" timeLoss="37.34" rerouteNo="0" devices="tripinfo_126" vType="DEFAULT_VEHTYPE" speedFactor="1.13" vaporized=""/>
    <tripinfo id="43" depart="43.00" departLane="NorthWesttoU_0" departPos="5.10" departSpeed="0.00" departDelay="0.00" arrival="227.00" arrivalLane="RtoEast_0" arrivalPos="474.72" arrivalSpeed="12.44" duration="184.00" routeLength="1703.20" waitingTime="30.00" waitingCount="1" stopTime="0.00" timeLoss="47.05" rerouteNo="0" devices="tripinfo_43" vType="DEFAULT_VEHTYPE" speedFactor="0.90" vaporized=""/>
    <tripinfo id="49" depart="49.00" departLane="SouthWesttoL_0" departPos="5.10" departSpeed="0.00" departDelay="0.00" arrival="227.00" arrivalLane="UtoNorthEast_0" arrivalPos="488.57" arrivalSpeed="13.44" duration="178.00" routeLength="1701.85" waitingTime="36.00" waitingCount="1" stopTime="0.00" timeLoss="53.84" rerouteNo="0" devices="tripinfo_49" vType="DEFAULT_VEHTYPE" speedFactor="0.99" vaporized=""/>
    <tripinfo id="95" depart="96.00" departLane="SouthEasttoR_0" departPos="5.10" departSpeed="0.00" departDelay="1.00" arrival="227.00" arrivalLane="RtoEast_1" arrivalPos="474.72" arrivalSpeed="14.19" duration="131.00" routeLength="950.90" waitingTime="50.00" waitingCount="1" stopTime="0.00" timeLoss="64.61" rerouteNo="0" devices="tripinfo_95" vType="DEFAULT_VEHTYPE" speedFactor="1.03" vaporized=""/>
    <tripinfo id="88" depart="88.00" departLane="WesttoL_0" departPos="5.10" departSpeed="0.00" departDelay="0.00" arrival="229.00" arrivalLane="UtoNorthWest_2" arrivalPos="488.57" arrivalSpeed="15.38" duration="141.00" routeLength="1698.87" waitingTime="2.00" waitingCount="1" stopTime="0.00" timeLoss="32.00" rerouteNo="0" devices="tripinfo_88" vType="DEFAULT_VEHTYPE" speedFactor="1.13" vaporized=""/>
    <tripinfo id="64" depart="67.00" departLane="SouthWesttoL_0" departPos="5.10" departSpeed="0.00" departDelay="3.00" arrival="230.00" arrivalLane="UtoNorthWest_1" arrivalPos="488.57" arrivalSpeed="13.35" duration="163.00" routeLength="1700.12" waitingTime="19.00" waitingCount="1" stopTime="0.00" timeLoss="37.63" rerouteNo="0" devices="tripinfo_64" vType="DEFAULT_VEHTYPE" speedFactor="0.98" vaporized=""/>
    <tripinfo id="25" depart="25.00" departLane="WesttoL_0" departPos="5.10" departSpeed="0.00" departDelay="0.00" arrival="231.00" arrivalLane="UtoNorthWest_0" arrivalPos="488.57" arrivalSpeed="13.39" duration="206.00" routeLength="1706.79" waitingTime="63.00" waitingCount="1" stopTime="0.00" timeLoss="81.62" rerouteNo="0" devices="tripinfo_25" vType="DEFAULT_VEHTYPE" speedFactor="0.99" vaporized=""/>
    <tripinfo id="93" depart="94.00" departLane="WesttoL_0" departPos="5.10" departSpeed="0.00" departDelay="1.00" arrival="234.00" arrivalLane="UtoNorthWest_1" arrivalPos="488.57" arrivalSpeed="13.60" duration="140.00" routeLength="1701.47" waitingTime="1.00" waitingCount="1" stopTime="0.00" timeLoss="19.72" rerouteNo="0" devices="tripinfo_93" vType="DEFAULT_VEHTYPE" speedFactor="1.02" vaporized=""/>
    <tripinfo id="71" depart="71.00" departLane="WesttoL_0" departPos="5.10" departSpeed="0.00" departDelay="0.00" arrival="235.00" arrivalLane="UtoNorthEast_0" arrivalPos="488.57" arrivalSpeed="11.93" duration="164.00" routeLength="1700.60" waitingTime="8.00" waitingCount="2" stopTime="0.00" timeLoss="28.65" rerouteNo="0" devices="tripinfo_71" vType="DEFAULT_VEHTYPE" speedFactor="0.91" vaporized=""/>
    <tripinfo id="140" depart="140.00" departLane="SouthEasttoR_0" departPos="5.10" departSpeed="0.00" departDelay="0.00" arrival="236.00" arrivalLane="RtoEast_0" arrivalPos="474.72" arrivalSpeed="11.76" duration="96.00" routeLength="950.90" waitingTime="5.00" waitingCount="1" stopTime="0.00" timeLoss="20.07" rerouteNo="0" devices="tripinfo_140" vType="DEFAULT_VEHTYPE" speedFactor="0.91" vaporized=""/>
    <tripinfo id="158" depart="158.00" departLane="SouthEasttoR_0" departPos="5.10" departSpeed="0.00" departDelay="0.00" arrival="236.00" arrivalLane="RtoEast_1" arrivalPos="474.72" arrivalSpeed="14.22" duration="78.00" routeLength="960.77" waitingTime="0.00" waitingCount="0" stopTime="0.00" timeLoss="11.30" rerouteNo="0" devices="tripinfo_158" vType="DEFAULT_VEHTYPE" speedFactor="1.05" vaporized=""/>
    <tripinfo id="129" depart="135.00" departLane="SouthWesttoL_0" departPos="5.10" departSpeed="0.00" departDelay="6.00" arrival="237.00" arrivalLane="LtoWest_0" arrivalPos="474.72" arrivalSpeed="11.68" duration="102.00" routeLength="980.51" waitingTime="9.00" waitingCount="1" stopTime="0.00" timeLoss="22.48" rerouteNo="0" devices="tripinfo_129" vType="DEFAULT_VEHTYPE" speedFactor="0.90" vaporized=""/>
    <tripinfo id="165" depart="165.00" departLane="SouthEasttoR_0" departPos="5.10" departSpeed="0.00" departDelay="0.00" arrival="237.00" arrivalLane="RtoEast_0" arrivalPos="474.72" arrivalSpeed="13.95" duration="72.00" routeLength="950.90" waitingTime="0.00" waitingCount="0" stopTime="0.00" timeLoss="7.95" rerouteNo="0" devices="tripinfo_165" vType="DEFAULT_VEHTYPE" speedFactor="1.07" vaporized=""/>
    <tripinfo id="80" depart="80.00" departLane="WesttoL_0" departPos="5.10" departSpeed="0.00" departDelay="0.00" arrival="238.00" arrivalLane="UtoNorthEast_1" arrivalPos="488.57" arrivalSpeed="13.07" duration="158.00" routeLength="1703.20" waitingTime="6.00" waitingCount="1" stopTime="0.00" timeLoss="32.26" rerouteNo="0" devices="tripinfo_80" vType="DEFAULT_VEHTYPE" speedFactor="0.98" vaporized=""/>
    <tripinfo id="107" depart="115.00" departLane="WesttoL_0" departPos="5.10" departSpeed="0.00" departDelay="8.00" arrival="239.00" arrivalLane="UtoNorthEast_2" arrivalPos="488.57" arrivalSpeed="15.46" duration="124.00" routeLength="1703.20" waitingTime="0.00" waitingCount="0" stopTime="0.00" timeLoss="13.06" rerouteNo="0" devices="tripinfo_107" vType="DEFAULT_VEHTYPE" speedFactor="1.11" vaporized=""/>
    <tripinfo id="34" depart="34.00" departLane="WesttoL_0" departPos="5.10" departSpeed="0.00" departDelay="0.00" arrival="243.00" arrivalLane="UtoNorthEast_0" arrivalPos="488.57" arrivalSpeed="10.31" duration="209.00" routeLength="1703.20" waitingTime="30.00" waitingCount="1" stopTime="0.00" timeLoss="49.65" rerouteNo="0" devices="tripinfo_34" vType="DEFAULT_VEHTYPE" speedFactor="0.77" vaporized=""/>
    <tripinfo id="194" depart="194.00" departLane="SouthEasttoR_0" departPos="5.10" departSpeed="0.00" departDelay="0.00" arrival="271.00" arrivalLane="RtoEast_0" arrivalPos="474.72" arrivalSpeed="13.12" duration="77.00" routeLength="950.90" waitingTime="0.00" waitingCount="0" stopTime="0.00" timeLoss="7.42" rerouteNo="0" devices="tripinfo_194" vType="DEFAULT_VEHTYPE" speedFactor="1.00" vaporized=""/>
    <tripinfo id="132" depart="132.00" departLane="NorthWesttoU_0" departPos="5.10" departSpeed="0.00" departDelay="0.00" arrival="281.00" arrivalLane="UtoNorthEast_0" arrivalPos="488.57" arrivalSpeed="13.42" duration="149.00" routeLength="998.33" waitingTime="61.00" waitingCount="1" stopTime="0.00" timeLoss="78.23" rerouteNo="0" devices="tripinfo_132" vType="DEFAULT_VEHTYPE" speedFactor="1.02" vaporized=""/>
    <tripinfo id="157" depart="160.00" departLane="NorthWesttoU_0" departPos="5.10" departSpeed="0.00" departDelay="3.00" arrival="282.00" arrivalLane="UtoNorthEast_1" arrivalPos="488.57" arrivalSpeed="13.35" duration="122.00" routeLength="993.01" waitingTime="35.00" waitingCount="1" stopTime="0.00" timeLoss="47.25" rerouteNo="0" devices="tripinfo_157" vType="DEFAULT_VEHTYPE" speedFactor="0.96" vaporized=""/>
    <tripinfo id="168" depart="168.00" departLane="EasttoR_0" departPos="5.10" departSpeed="0.00" departDelay="0.00" arrival="283.00" arrivalLane="RtoSouthEast_0" arrivalPos="474.64" arrivalSpeed="12.39" duration="115.00" routeLength="980.51" waitingTime="24.00" waitingCount="1" stopTime="0.00" timeLoss="37.90" rerouteNo="0" devices="tripinfo_168" vType="DEFAULT_VEHTYPE" speedFactor="0.92" vaporized=""/>
    <tripinfo id="181" depart="181.00" departLane="NorthWesttoU_0" departPos="5.10" departSpeed="0.00" departDelay="0.00" arrival="285.00" arrivalLane="UtoNorthEast_0" arrivalPos="488.57" arrivalSpeed="12.26" duration="104.00" routeLength="993.01" waitingTime="14.00" waitingCount="1" stopTime="0.00" timeLoss="29.92" rerouteNo="0" devices="tripinfo_181" vType="DEFAULT_VEHTYPE" speedFactor="0.97" vaporized=""/>
    <tripinfo id="154" depart="154.00" departLane="NorthWesttoU_0" departPos="5.10" departSpeed="0.00" departDelay="0.00" arrival="290.00" arrivalLane="UtoNorthEast_0" arrivalPos="488.57" arrivalSpeed="13.57" duration="136.00" routeLength="998.33" waitingTime="44.00" waitingCount="2" stopTime="0.00" timeLoss="62.26" rerouteNo="0" devices="tripinfo_154" vType="DEFAULT_VEHTYPE" speedFactor="0.98" vaporized=""/>
    <tripinfo id="198" depart="198.00" departLane="WesttoL_0" departPos="5.10" departSpeed="0.00" departDelay="0.00" arrival="292.00" arrivalLane="LtoSouthWest_0" arrivalPos="474.64" arrivalSpeed="12.60" duration="94.00" routeLength="950.90" waitingTime="1.00" waitingCount="1" stopTime="0.00" timeLoss="20.86" rerouteNo="0" devices="tripinfo_198" vType="DEFAULT_VEHTYPE" speedFactor="0.94" vaporized=""/>
    <tripinfo id="130" depart="136.00" departLane="WesttoL_0" departPos="5.10" departSpeed="0.00" departDelay="6.00" arrival="294.00" arrivalLane="LtoSouthWest_1" arrivalPos="474.64" arrivalSpeed="13.87" duration="158.00" routeLength="960.77" waitingTime="74.00" waitingCount="2" stopTime="0.00" timeLoss="92.56" rerouteNo="0" devices="tripinfo_130" vType="DEFAULT_VEHTYPE" speedFactor="1.06" vaporized=""/>
    <tripinfo id="133" depart="138.00" departLane="WesttoL_0" departPos="5.10" departSpeed="0.00" departDelay="5.00" arrival="294.00" arrivalLane="LtoSouthWest_0" arrivalPos="474.64" arrivalSpeed="13.89" duration="156.00" routeLength="950.90" waitingTime="73.00" waitingCount="2" stopTime="0.00" timeLoss="92.47" rerouteNo="0" devices="tripinfo_133" vType="DEFAULT_VEHTYPE" speedFactor="1.09" vaporized=""/>
    <tripinfo id="39" depart="39.00" departLane="SouthWesttoL_0" departPos="5.10" departSpeed="0.00" departDelay="0.00" arrival="297.00" arrivalLane="RtoEast_0" arrivalPos="474.72" arrivalSpeed="15.60" duration="258.00" routeLength="1988.31" waitingTime="114.00" waitingCount="2" stopTime="0.00" timeLoss="135.36" rerouteNo="0" devices="tripinfo_39" vType="DEFAULT_VEHTYPE" speedFactor="1.17" vaporized=""/>
    <tripinfo id="7" depart="9.00" departLane="SouthWesttoL_0" departPos="5.10" departSpeed="0.00" departDelay="2.00" arrival="298.00" arrivalLane="RtoEast_1" arrivalPos="474.72" arrivalSpeed="14.33" duration="289.00" routeLength="1985.72" waitingTime="131.00" waitingCount="2" stopTime="0.00" timeLoss="157.80" rerouteNo="0" devices="tripinfo_7" vType="DEFAULT_VEHTYPE" speedFactor="1.09" vaporized=""/>
    <tripinfo id="29" depart="29.00" departLane="SouthEasttoR_0" departPos="5.10" departSpeed="0.00" departDelay="0.00" arrival="298.00" arrivalLane="LtoWest_1" arrivalPos="474.72" arrivalSpeed="15.22" duration="269.00" routeLength="1993.49" waitingTime="115.00" waitingCount="2" stopTime="0.00" timeLoss="137.99" rerouteNo="0" devices="tripinfo_29" vType="DEFAULT_VEHTYPE" speedFactor="1.10" vaporized=""/>